(written by ASE)

10680 atoms
1 atom types

0.0      28.849956672411142  xlo xhi
0.0      44.880000000000003  ylo yhi
0.0      173.09974003446686  zlo zhi

Atoms # atomic

     1   1      5.0487424176719458      6.1200000000000028       2.163746750430839
     2   1      6.4912402512925027      4.0800000000000027     0.72124891681028225
     3   1      7.9337380849130597      6.1200000000000028      2.1637467504308394
     4   1      9.3762359185336166      4.0800000000000027     0.72124891681028236
     5   1      10.818733752154174      6.1200000000000028      2.1637467504308394
     6   1       12.26123158577473      4.0800000000000027     0.72124891681028236
     7   1      13.703729419395287      6.1200000000000028      2.1637467504308399
     8   1      15.146227253015844      4.0800000000000027     0.72124891681028247
     9   1      16.588725086636398      6.1200000000000028      2.1637467504308399
    10   1      18.031222920256958      4.0800000000000027     0.72124891681028258
    11   1      19.473720753877515      6.1200000000000028      2.1637467504308399
    12   1      20.916218587498072      4.0800000000000027     0.72124891681028269
    13   1      22.358716421118629      6.1200000000000028      2.1637467504308399
    14   1      23.801214254739186      4.0800000000000027      0.7212489168102828
    15   1      25.243712088359743      6.1200000000000028      2.1637467504308399
    16   1      2.1637467504308314      10.200000000000003       2.163746750430839
    17   1      3.6062445840513888      8.1600000000000037     0.72124891681028214
    18   1      5.0487424176719458      10.200000000000003       2.163746750430839
    19   1      6.4912402512925027      8.1600000000000037     0.72124891681028225
    20   1      7.9337380849130597      10.200000000000003      2.1637467504308394
    21   1      9.3762359185336166      8.1600000000000037     0.72124891681028236
    22   1      10.818733752154174      10.200000000000003      2.1637467504308394
    23   1       12.26123158577473      8.1600000000000037     0.72124891681028236
    24   1      13.703729419395287      10.200000000000003      2.1637467504308399
    25   1      15.146227253015844      8.1600000000000037     0.72124891681028247
    26   1      16.588725086636398      10.200000000000003      2.1637467504308399
    27   1      18.031222920256958      8.1600000000000037     0.72124891681028258
    28   1      19.473720753877515      10.200000000000003      2.1637467504308399
    29   1      20.916218587498072      8.1600000000000037     0.72124891681028269
    30   1      22.358716421118629      10.200000000000003      2.1637467504308399
    31   1      23.801214254739186      8.1600000000000037      0.7212489168102828
    32   1      25.243712088359743      10.200000000000003      2.1637467504308399
    33   1        26.6862099219803      8.1600000000000037     0.72124891681028291
    34   1      28.128707755600857      10.200000000000003      2.1637467504308399
    35   1     0.72124891681027481      12.240000000000002     0.72124891681028203
    36   1      2.1637467504308314      14.280000000000005       2.163746750430839
    37   1      3.6062445840513888      12.240000000000002     0.72124891681028214
    38   1      5.0487424176719458      14.280000000000005       2.163746750430839
    39   1      6.4912402512925027      12.240000000000002     0.72124891681028225
    40   1      7.9337380849130597      14.280000000000005      2.1637467504308394
    41   1      9.3762359185336166      12.240000000000002     0.72124891681028236
    42   1      10.818733752154174      14.280000000000005      2.1637467504308394
    43   1       12.26123158577473      12.240000000000002     0.72124891681028236
    44   1      13.703729419395287      14.280000000000005      2.1637467504308399
    45   1      15.146227253015844      12.240000000000002     0.72124891681028247
    46   1      16.588725086636398      14.280000000000005      2.1637467504308399
    47   1      18.031222920256958      12.240000000000002     0.72124891681028258
    48   1      19.473720753877515      14.280000000000005      2.1637467504308399
    49   1      20.916218587498072      12.240000000000002     0.72124891681028269
    50   1      22.358716421118629      14.280000000000005      2.1637467504308399
    51   1      23.801214254739186      12.240000000000002      0.7212489168102828
    52   1      25.243712088359743      14.280000000000005      2.1637467504308399
    53   1        26.6862099219803      12.240000000000002     0.72124891681028291
    54   1      28.128707755600857      14.280000000000005      2.1637467504308399
    55   1     0.72124891681027481      16.320000000000004     0.72124891681028203
    56   1      2.1637467504308314      18.360000000000003       2.163746750430839
    57   1      3.6062445840513888      16.320000000000004     0.72124891681028214
    58   1      5.0487424176719458      18.360000000000003       2.163746750430839
    59   1      6.4912402512925027      16.320000000000004     0.72124891681028225
    60   1      7.9337380849130597      18.360000000000003      2.1637467504308394
    61   1      9.3762359185336166      16.320000000000004     0.72124891681028236
    62   1      10.818733752154174      18.360000000000003      2.1637467504308394
    63   1       12.26123158577473      16.320000000000004     0.72124891681028236
    64   1      13.703729419395287      18.360000000000003      2.1637467504308399
    65   1      15.146227253015844      16.320000000000004     0.72124891681028247
    66   1      16.588725086636398      18.360000000000003      2.1637467504308399
    67   1      18.031222920256958      16.320000000000004     0.72124891681028258
    68   1      19.473720753877515      18.360000000000003      2.1637467504308399
    69   1      20.916218587498072      16.320000000000004     0.72124891681028269
    70   1      22.358716421118629      18.360000000000003      2.1637467504308399
    71   1      23.801214254739186      16.320000000000004      0.7212489168102828
    72   1      25.243712088359743      18.360000000000003      2.1637467504308399
    73   1        26.6862099219803      16.320000000000004     0.72124891681028291
    74   1      28.128707755600857      18.360000000000003      2.1637467504308399
    75   1     0.72124891681027481      20.400000000000002     0.72124891681028203
    76   1      2.1637467504308314      22.440000000000001       2.163746750430839
    77   1      3.6062445840513888      20.400000000000002     0.72124891681028214
    78   1      5.0487424176719458      22.440000000000001       2.163746750430839
    79   1      6.4912402512925027      20.400000000000002     0.72124891681028225
    80   1      7.9337380849130597      22.440000000000001      2.1637467504308394
    81   1      9.3762359185336166      20.400000000000002     0.72124891681028236
    82   1      10.818733752154174      22.440000000000001      2.1637467504308394
    83   1       12.26123158577473      20.400000000000002     0.72124891681028236
    84   1      13.703729419395287      22.440000000000001      2.1637467504308399
    85   1      15.146227253015844      20.400000000000002     0.72124891681028247
    86   1      16.588725086636398      22.440000000000001      2.1637467504308399
    87   1      18.031222920256958      20.400000000000002     0.72124891681028258
    88   1      19.473720753877515      22.440000000000001      2.1637467504308399
    89   1      20.916218587498072      20.400000000000002     0.72124891681028269
    90   1      22.358716421118629      22.440000000000001      2.1637467504308399
    91   1      23.801214254739186      20.400000000000002      0.7212489168102828
    92   1      25.243712088359743      22.440000000000001      2.1637467504308399
    93   1        26.6862099219803      20.400000000000002     0.72124891681028291
    94   1      28.128707755600857      22.440000000000001      2.1637467504308399
    95   1     0.72124891681027481      24.480000000000004     0.72124891681028203
    96   1      2.1637467504308314      26.520000000000003       2.163746750430839
    97   1      3.6062445840513888      24.480000000000004     0.72124891681028214
    98   1      5.0487424176719458      26.520000000000003       2.163746750430839
    99   1      6.4912402512925027      24.480000000000004     0.72124891681028225
   100   1      7.9337380849130597      26.520000000000003      2.1637467504308394
   101   1      9.3762359185336166      24.480000000000004     0.72124891681028236
   102   1      10.818733752154174      26.520000000000003      2.1637467504308394
   103   1       12.26123158577473      24.480000000000004     0.72124891681028236
   104   1      13.703729419395287      26.520000000000003      2.1637467504308399
   105   1      15.146227253015844      24.480000000000004     0.72124891681028247
   106   1      16.588725086636398      26.520000000000003      2.1637467504308399
   107   1      18.031222920256958      24.480000000000004     0.72124891681028258
   108   1      19.473720753877515      26.520000000000003      2.1637467504308399
   109   1      20.916218587498072      24.480000000000004     0.72124891681028269
   110   1      22.358716421118629      26.520000000000003      2.1637467504308399
   111   1      23.801214254739186      24.480000000000004      0.7212489168102828
   112   1      25.243712088359743      26.520000000000003      2.1637467504308399
   113   1        26.6862099219803      24.480000000000004     0.72124891681028291
   114   1      28.128707755600857      26.520000000000003      2.1637467504308399
   115   1     0.72124891681027481      28.560000000000006     0.72124891681028203
   116   1      2.1637467504308314      30.600000000000005       2.163746750430839
   117   1      3.6062445840513888      28.560000000000006     0.72124891681028214
   118   1      5.0487424176719458      30.600000000000005       2.163746750430839
   119   1      6.4912402512925027      28.560000000000006     0.72124891681028225
   120   1      7.9337380849130597      30.600000000000005      2.1637467504308394
   121   1      9.3762359185336166      28.560000000000006     0.72124891681028236
   122   1      10.818733752154174      30.600000000000005      2.1637467504308394
   123   1       12.26123158577473      28.560000000000006     0.72124891681028236
   124   1      13.703729419395287      30.600000000000005      2.1637467504308399
   125   1      15.146227253015844      28.560000000000006     0.72124891681028247
   126   1      16.588725086636398      30.600000000000005      2.1637467504308399
   127   1      18.031222920256958      28.560000000000006     0.72124891681028258
   128   1      19.473720753877515      30.600000000000005      2.1637467504308399
   129   1      20.916218587498072      28.560000000000006     0.72124891681028269
   130   1      22.358716421118629      30.600000000000005      2.1637467504308399
   131   1      23.801214254739186      28.560000000000006      0.7212489168102828
   132   1      25.243712088359743      30.600000000000005      2.1637467504308399
   133   1        26.6862099219803      28.560000000000006     0.72124891681028291
   134   1      28.128707755600857      30.600000000000005      2.1637467504308399
   135   1     0.72124891681027481      32.640000000000001     0.72124891681028203
   136   1      2.1637467504308314                   34.68       2.163746750430839
   137   1      3.6062445840513888      32.640000000000001     0.72124891681028214
   138   1      5.0487424176719458                   34.68       2.163746750430839
   139   1      6.4912402512925027      32.640000000000001     0.72124891681028225
   140   1      7.9337380849130597                   34.68      2.1637467504308394
   141   1      9.3762359185336166      32.640000000000001     0.72124891681028236
   142   1      10.818733752154174                   34.68      2.1637467504308394
   143   1       12.26123158577473      32.640000000000001     0.72124891681028236
   144   1      13.703729419395287                   34.68      2.1637467504308399
   145   1      15.146227253015844      32.640000000000001     0.72124891681028247
   146   1      16.588725086636398                   34.68      2.1637467504308399
   147   1      18.031222920256958      32.640000000000001     0.72124891681028258
   148   1      19.473720753877515                   34.68      2.1637467504308399
   149   1      20.916218587498072      32.640000000000001     0.72124891681028269
   150   1      22.358716421118629                   34.68      2.1637467504308399
   151   1      23.801214254739186      32.640000000000001      0.7212489168102828
   152   1      25.243712088359743                   34.68      2.1637467504308399
   153   1        26.6862099219803      32.640000000000001     0.72124891681028291
   154   1      28.128707755600857                   34.68      2.1637467504308399
   155   1      3.6062445840513888      36.719999999999999     0.72124891681028214
   156   1      5.0487424176719458      38.759999999999998       2.163746750430839
   157   1      6.4912402512925027      36.719999999999999     0.72124891681028225
   158   1      7.9337380849130597      38.759999999999998      2.1637467504308394
   159   1      9.3762359185336166      36.719999999999999     0.72124891681028236
   160   1      10.818733752154174      38.759999999999998      2.1637467504308394
   161   1       12.26123158577473      36.719999999999999     0.72124891681028236
   162   1      13.703729419395287      38.759999999999998      2.1637467504308399
   163   1      15.146227253015844      36.719999999999999     0.72124891681028247
   164   1      16.588725086636398      38.759999999999998      2.1637467504308399
   165   1      18.031222920256958      36.719999999999999     0.72124891681028258
   166   1      19.473720753877515      38.759999999999998      2.1637467504308399
   167   1      20.916218587498072      36.719999999999999     0.72124891681028269
   168   1      22.358716421118629      38.759999999999998      2.1637467504308399
   169   1      23.801214254739186      36.719999999999999      0.7212489168102828
   170   1      25.243712088359743      38.759999999999998      2.1637467504308399
   171   1        26.6862099219803      36.719999999999999     0.72124891681028291
   172   1      6.4912402512925027      40.799999999999997     0.72124891681028225
   173   1      9.3762359185336166      40.799999999999997     0.72124891681028236
   174   1       12.26123158577473      40.799999999999997     0.72124891681028236
   175   1      15.146227253015844      40.799999999999997     0.72124891681028247
   176   1      18.031222920256958      40.799999999999997     0.72124891681028258
   177   1      20.916218587498072      40.799999999999997     0.72124891681028269
   178   1      23.801214254739186      40.799999999999997      0.7212489168102828
   179   1      5.0487424176719458      6.1200000000000028      5.0487424176719538
   180   1      6.4912402512925027      4.0800000000000027      3.6062445840513964
   181   1      7.9337380849130597      6.1200000000000028      5.0487424176719538
   182   1      9.3762359185336166      4.0800000000000027      3.6062445840513968
   183   1      10.818733752154174      6.1200000000000028      5.0487424176719538
   184   1       12.26123158577473      4.0800000000000027      3.6062445840513968
   185   1      13.703729419395287      6.1200000000000028      5.0487424176719538
   186   1      15.146227253015844      4.0800000000000027      3.6062445840513968
   187   1      16.588725086636398      6.1200000000000028      5.0487424176719538
   188   1      18.031222920256958      4.0800000000000027      3.6062445840513968
   189   1      19.473720753877515      6.1200000000000028      5.0487424176719546
   190   1      20.916218587498072      4.0800000000000027      3.6062445840513968
   191   1      22.358716421118629      6.1200000000000028      5.0487424176719546
   192   1      23.801214254739186      4.0800000000000027      3.6062445840513973
   193   1      25.243712088359743      6.1200000000000028      5.0487424176719546
   194   1      2.1637467504308314      10.200000000000003      5.0487424176719538
   195   1      3.6062445840513888      8.1600000000000037      3.6062445840513964
   196   1      5.0487424176719458      10.200000000000003      5.0487424176719538
   197   1      6.4912402512925027      8.1600000000000037      3.6062445840513964
   198   1      7.9337380849130597      10.200000000000003      5.0487424176719538
   199   1      9.3762359185336166      8.1600000000000037      3.6062445840513968
   200   1      10.818733752154174      10.200000000000003      5.0487424176719538
   201   1       12.26123158577473      8.1600000000000037      3.6062445840513968
   202   1      13.703729419395287      10.200000000000003      5.0487424176719538
   203   1      15.146227253015844      8.1600000000000037      3.6062445840513968
   204   1      16.588725086636398      10.200000000000003      5.0487424176719538
   205   1      18.031222920256958      8.1600000000000037      3.6062445840513968
   206   1      19.473720753877515      10.200000000000003      5.0487424176719546
   207   1      20.916218587498072      8.1600000000000037      3.6062445840513968
   208   1      22.358716421118629      10.200000000000003      5.0487424176719546
   209   1      23.801214254739186      8.1600000000000037      3.6062445840513973
   210   1      25.243712088359743      10.200000000000003      5.0487424176719546
   211   1        26.6862099219803      8.1600000000000037      3.6062445840513973
   212   1      28.128707755600857      10.200000000000003      5.0487424176719546
   213   1     0.72124891681027492      12.240000000000002      3.6062445840513964
   214   1      2.1637467504308314      14.280000000000005      5.0487424176719538
   215   1      3.6062445840513888      12.240000000000002      3.6062445840513964
   216   1      5.0487424176719458      14.280000000000005      5.0487424176719538
   217   1      6.4912402512925027      12.240000000000002      3.6062445840513964
   218   1      7.9337380849130597      14.280000000000005      5.0487424176719538
   219   1      9.3762359185336166      12.240000000000002      3.6062445840513968
   220   1      10.818733752154174      14.280000000000005      5.0487424176719538
   221   1       12.26123158577473      12.240000000000002      3.6062445840513968
   222   1      13.703729419395287      14.280000000000005      5.0487424176719538
   223   1      15.146227253015844      12.240000000000002      3.6062445840513968
   224   1      16.588725086636398      14.280000000000005      5.0487424176719538
   225   1      18.031222920256958      12.240000000000002      3.6062445840513968
   226   1      19.473720753877515      14.280000000000005      5.0487424176719546
   227   1      20.916218587498072      12.240000000000002      3.6062445840513968
   228   1      22.358716421118629      14.280000000000005      5.0487424176719546
   229   1      23.801214254739186      12.240000000000002      3.6062445840513973
   230   1      25.243712088359743      14.280000000000005      5.0487424176719546
   231   1        26.6862099219803      12.240000000000002      3.6062445840513973
   232   1      28.128707755600857      14.280000000000005      5.0487424176719546
   233   1     0.72124891681027492      16.320000000000004      3.6062445840513964
   234   1      2.1637467504308314      18.360000000000003      5.0487424176719538
   235   1      3.6062445840513888      16.320000000000004      3.6062445840513964
   236   1      5.0487424176719458      18.360000000000003      5.0487424176719538
   237   1      6.4912402512925027      16.320000000000004      3.6062445840513964
   238   1      7.9337380849130597      18.360000000000003      5.0487424176719538
   239   1      9.3762359185336166      16.320000000000004      3.6062445840513968
   240   1      10.818733752154174      18.360000000000003      5.0487424176719538
   241   1       12.26123158577473      16.320000000000004      3.6062445840513968
   242   1      13.703729419395287      18.360000000000003      5.0487424176719538
   243   1      15.146227253015844      16.320000000000004      3.6062445840513968
   244   1      16.588725086636398      18.360000000000003      5.0487424176719538
   245   1      18.031222920256958      16.320000000000004      3.6062445840513968
   246   1      19.473720753877515      18.360000000000003      5.0487424176719546
   247   1      20.916218587498072      16.320000000000004      3.6062445840513968
   248   1      22.358716421118629      18.360000000000003      5.0487424176719546
   249   1      23.801214254739186      16.320000000000004      3.6062445840513973
   250   1      25.243712088359743      18.360000000000003      5.0487424176719546
   251   1        26.6862099219803      16.320000000000004      3.6062445840513973
   252   1      28.128707755600857      18.360000000000003      5.0487424176719546
   253   1     0.72124891681027492      20.400000000000002      3.6062445840513964
   254   1      2.1637467504308314      22.440000000000001      5.0487424176719538
   255   1      3.6062445840513888      20.400000000000002      3.6062445840513964
   256   1      5.0487424176719458      22.440000000000001      5.0487424176719538
   257   1      6.4912402512925027      20.400000000000002      3.6062445840513964
   258   1      7.9337380849130597      22.440000000000001      5.0487424176719538
   259   1      9.3762359185336166      20.400000000000002      3.6062445840513968
   260   1      10.818733752154174      22.440000000000001      5.0487424176719538
   261   1       12.26123158577473      20.400000000000002      3.6062445840513968
   262   1      13.703729419395287      22.440000000000001      5.0487424176719538
   263   1      15.146227253015844      20.400000000000002      3.6062445840513968
   264   1      16.588725086636398      22.440000000000001      5.0487424176719538
   265   1      18.031222920256958      20.400000000000002      3.6062445840513968
   266   1      19.473720753877515      22.440000000000001      5.0487424176719546
   267   1      20.916218587498072      20.400000000000002      3.6062445840513968
   268   1      22.358716421118629      22.440000000000001      5.0487424176719546
   269   1      23.801214254739186      20.400000000000002      3.6062445840513973
   270   1      25.243712088359743      22.440000000000001      5.0487424176719546
   271   1        26.6862099219803      20.400000000000002      3.6062445840513973
   272   1      28.128707755600857      22.440000000000001      5.0487424176719546
   273   1     0.72124891681027492      24.480000000000004      3.6062445840513964
   274   1      2.1637467504308314      26.520000000000003      5.0487424176719538
   275   1      3.6062445840513888      24.480000000000004      3.6062445840513964
   276   1      5.0487424176719458      26.520000000000003      5.0487424176719538
   277   1      6.4912402512925027      24.480000000000004      3.6062445840513964
   278   1      7.9337380849130597      26.520000000000003      5.0487424176719538
   279   1      9.3762359185336166      24.480000000000004      3.6062445840513968
   280   1      10.818733752154174      26.520000000000003      5.0487424176719538
   281   1       12.26123158577473      24.480000000000004      3.6062445840513968
   282   1      13.703729419395287      26.520000000000003      5.0487424176719538
   283   1      15.146227253015844      24.480000000000004      3.6062445840513968
   284   1      16.588725086636398      26.520000000000003      5.0487424176719538
   285   1      18.031222920256958      24.480000000000004      3.6062445840513968
   286   1      19.473720753877515      26.520000000000003      5.0487424176719546
   287   1      20.916218587498072      24.480000000000004      3.6062445840513968
   288   1      22.358716421118629      26.520000000000003      5.0487424176719546
   289   1      23.801214254739186      24.480000000000004      3.6062445840513973
   290   1      25.243712088359743      26.520000000000003      5.0487424176719546
   291   1        26.6862099219803      24.480000000000004      3.6062445840513973
   292   1      28.128707755600857      26.520000000000003      5.0487424176719546
   293   1     0.72124891681027492      28.560000000000006      3.6062445840513964
   294   1      2.1637467504308314      30.600000000000005      5.0487424176719538
   295   1      3.6062445840513888      28.560000000000006      3.6062445840513964
   296   1      5.0487424176719458      30.600000000000005      5.0487424176719538
   297   1      6.4912402512925027      28.560000000000006      3.6062445840513964
   298   1      7.9337380849130597      30.600000000000005      5.0487424176719538
   299   1      9.3762359185336166      28.560000000000006      3.6062445840513968
   300   1      10.818733752154174      30.600000000000005      5.0487424176719538
   301   1       12.26123158577473      28.560000000000006      3.6062445840513968
   302   1      13.703729419395287      30.600000000000005      5.0487424176719538
   303   1      15.146227253015844      28.560000000000006      3.6062445840513968
   304   1      16.588725086636398      30.600000000000005      5.0487424176719538
   305   1      18.031222920256958      28.560000000000006      3.6062445840513968
   306   1      19.473720753877515      30.600000000000005      5.0487424176719546
   307   1      20.916218587498072      28.560000000000006      3.6062445840513968
   308   1      22.358716421118629      30.600000000000005      5.0487424176719546
   309   1      23.801214254739186      28.560000000000006      3.6062445840513973
   310   1      25.243712088359743      30.600000000000005      5.0487424176719546
   311   1        26.6862099219803      28.560000000000006      3.6062445840513973
   312   1      28.128707755600857      30.600000000000005      5.0487424176719546
   313   1     0.72124891681027492      32.640000000000001      3.6062445840513964
   314   1      2.1637467504308314                   34.68      5.0487424176719538
   315   1      3.6062445840513888      32.640000000000001      3.6062445840513964
   316   1      5.0487424176719458                   34.68      5.0487424176719538
   317   1      6.4912402512925027      32.640000000000001      3.6062445840513964
   318   1      7.9337380849130597                   34.68      5.0487424176719538
   319   1      9.3762359185336166      32.640000000000001      3.6062445840513968
   320   1      10.818733752154174                   34.68      5.0487424176719538
   321   1       12.26123158577473      32.640000000000001      3.6062445840513968
   322   1      13.703729419395287                   34.68      5.0487424176719538
   323   1      15.146227253015844      32.640000000000001      3.6062445840513968
   324   1      16.588725086636398                   34.68      5.0487424176719538
   325   1      18.031222920256958      32.640000000000001      3.6062445840513968
   326   1      19.473720753877515                   34.68      5.0487424176719546
   327   1      20.916218587498072      32.640000000000001      3.6062445840513968
   328   1      22.358716421118629                   34.68      5.0487424176719546
   329   1      23.801214254739186      32.640000000000001      3.6062445840513973
   330   1      25.243712088359743                   34.68      5.0487424176719546
   331   1        26.6862099219803      32.640000000000001      3.6062445840513973
   332   1      28.128707755600857                   34.68      5.0487424176719546
   333   1      3.6062445840513888      36.719999999999999      3.6062445840513964
   334   1      5.0487424176719458      38.759999999999998      5.0487424176719538
   335   1      6.4912402512925027      36.719999999999999      3.6062445840513964
   336   1      7.9337380849130597      38.759999999999998      5.0487424176719538
   337   1      9.3762359185336166      36.719999999999999      3.6062445840513968
   338   1      10.818733752154174      38.759999999999998      5.0487424176719538
   339   1       12.26123158577473      36.719999999999999      3.6062445840513968
   340   1      13.703729419395287      38.759999999999998      5.0487424176719538
   341   1      15.146227253015844      36.719999999999999      3.6062445840513968
   342   1      16.588725086636398      38.759999999999998      5.0487424176719538
   343   1      18.031222920256958      36.719999999999999      3.6062445840513968
   344   1      19.473720753877515      38.759999999999998      5.0487424176719546
   345   1      20.916218587498072      36.719999999999999      3.6062445840513968
   346   1      22.358716421118629      38.759999999999998      5.0487424176719546
   347   1      23.801214254739186      36.719999999999999      3.6062445840513973
   348   1      25.243712088359743      38.759999999999998      5.0487424176719546
   349   1        26.6862099219803      36.719999999999999      3.6062445840513973
   350   1      6.4912402512925027      40.799999999999997      3.6062445840513964
   351   1      9.3762359185336166      40.799999999999997      3.6062445840513968
   352   1       12.26123158577473      40.799999999999997      3.6062445840513968
   353   1      15.146227253015844      40.799999999999997      3.6062445840513968
   354   1      18.031222920256958      40.799999999999997      3.6062445840513968
   355   1      20.916218587498072      40.799999999999997      3.6062445840513968
   356   1      23.801214254739186      40.799999999999997      3.6062445840513973
   357   1      5.0487424176719458      6.1200000000000028      7.9337380849130676
   358   1      6.4912402512925027      4.0800000000000027      6.4912402512925107
   359   1      7.9337380849130597      6.1200000000000028      7.9337380849130685