(written by ASE)

13900 atoms
1 atom types

0.0      40.389939341375602  xlo xhi
0.0      40.799999999999997  ylo yhi
0.0      288.49956672411145  zlo zhi

Atoms # atomic

     1   1      12.982480502585011      6.1199999999999992      2.1637467504308399
     2   1      15.867476169826125      6.1199999999999992      2.1637467504308399
     3   1       18.75247183706724      6.1199999999999992      2.1637467504308399
     4   1      21.637467504308354      6.1199999999999992      2.1637467504308399
     5   1      24.522463171549468      6.1199999999999992      2.1637467504308399
     6   1      27.407458838790582      6.1199999999999992      2.1637467504308399
     7   1      10.097484835343897      10.199999999999998      2.1637467504308394
     8   1      11.539982668964454      8.1599999999999984     0.72124891681028236
     9   1      12.982480502585011      10.199999999999998      2.1637467504308399
    10   1      14.424978336205568      8.1599999999999984     0.72124891681028247
    11   1      15.867476169826125      10.199999999999998      2.1637467504308399
    12   1      17.309974003446683      8.1599999999999984     0.72124891681028258
    13   1       18.75247183706724      10.199999999999998      2.1637467504308399
    14   1      20.194969670687797      8.1599999999999984     0.72124891681028269
    15   1      21.637467504308354      10.199999999999998      2.1637467504308399
    16   1      23.079965337928911      8.1599999999999984      0.7212489168102828
    17   1      24.522463171549468      10.199999999999998      2.1637467504308399
    18   1      25.964961005170025      8.1599999999999984     0.72124891681028291
    19   1      27.407458838790582      10.199999999999998      2.1637467504308399
    20   1      28.849956672411139      8.1599999999999984     0.72124891681028303
    21   1      30.292454506031696      10.199999999999998      2.1637467504308399
    22   1      7.2124891681027821      14.279999999999999      2.1637467504308394
    23   1      8.6549870017233399      12.239999999999998     0.72124891681028236
    24   1      10.097484835343897      14.279999999999999      2.1637467504308394
    25   1      11.539982668964454      12.239999999999998     0.72124891681028236
    26   1      12.982480502585011      14.279999999999999      2.1637467504308399
    27   1      14.424978336205568      12.239999999999998     0.72124891681028247
    28   1      15.867476169826125      14.279999999999999      2.1637467504308399
    29   1      17.309974003446683      12.239999999999998     0.72124891681028258
    30   1       18.75247183706724      14.279999999999999      2.1637467504308399
    31   1      20.194969670687797      12.239999999999998     0.72124891681028269
    32   1      21.637467504308354      14.279999999999999      2.1637467504308399
    33   1      23.079965337928911      12.239999999999998      0.7212489168102828
    34   1      24.522463171549468      14.279999999999999      2.1637467504308399
    35   1      25.964961005170025      12.239999999999998     0.72124891681028291
    36   1      27.407458838790582      14.279999999999999      2.1637467504308399
    37   1      28.849956672411139      12.239999999999998     0.72124891681028303
    38   1      30.292454506031696      14.279999999999999      2.1637467504308399
    39   1      31.734952339652253      12.239999999999998     0.72124891681028303
    40   1       33.17745017327281      14.279999999999999      2.1637467504308403
    41   1      4.3274935008616682      18.359999999999999       2.163746750430839
    42   1      5.7699913344822251                   16.32     0.72124891681028225
    43   1      7.2124891681027821      18.359999999999999      2.1637467504308394
    44   1      8.6549870017233399                   16.32     0.72124891681028236
    45   1      10.097484835343897      18.359999999999999      2.1637467504308394
    46   1      11.539982668964454                   16.32     0.72124891681028236
    47   1      12.982480502585011      18.359999999999999      2.1637467504308399
    48   1      14.424978336205568                   16.32     0.72124891681028247
    49   1      15.867476169826125      18.359999999999999      2.1637467504308399
    50   1      17.309974003446683                   16.32     0.72124891681028258
    51   1       18.75247183706724      18.359999999999999      2.1637467504308399
    52   1      20.194969670687797                   16.32     0.72124891681028269
    53   1      21.637467504308354      18.359999999999999      2.1637467504308399
    54   1      23.079965337928911                   16.32      0.7212489168102828
    55   1      24.522463171549468      18.359999999999999      2.1637467504308399
    56   1      25.964961005170025                   16.32     0.72124891681028291
    57   1      27.407458838790582      18.359999999999999      2.1637467504308399
    58   1      28.849956672411139                   16.32     0.72124891681028303
    59   1      30.292454506031696      18.359999999999999      2.1637467504308399
    60   1      31.734952339652253                   16.32     0.72124891681028303
    61   1       33.17745017327281      18.359999999999999      2.1637467504308403
    62   1      34.619948006893367                   16.32     0.72124891681028314
    63   1      36.062445840513924      18.359999999999999      2.1637467504308403
    64   1      2.8849956672411103      20.399999999999999     0.72124891681028214
    65   1      4.3274935008616682      22.439999999999998       2.163746750430839
    66   1      5.7699913344822251      20.399999999999999     0.72124891681028225
    67   1      7.2124891681027821      22.439999999999998      2.1637467504308394
    68   1      8.6549870017233399      20.399999999999999     0.72124891681028236
    69   1      10.097484835343897      22.439999999999998      2.1637467504308394
    70   1      11.539982668964454      20.399999999999999     0.72124891681028236
    71   1      12.982480502585011      22.439999999999998      2.1637467504308399
    72   1      14.424978336205568      20.399999999999999     0.72124891681028247
    73   1      15.867476169826125      22.439999999999998      2.1637467504308399
    74   1      17.309974003446683      20.399999999999999     0.72124891681028258
    75   1       18.75247183706724      22.439999999999998      2.1637467504308399
    76   1      20.194969670687797      20.399999999999999     0.72124891681028269
    77   1      21.637467504308354      22.439999999999998      2.1637467504308399
    78   1      23.079965337928911      20.399999999999999      0.7212489168102828
    79   1      24.522463171549468      22.439999999999998      2.1637467504308399
    80   1      25.964961005170025      20.399999999999999     0.72124891681028291
    81   1      27.407458838790582      22.439999999999998      2.1637467504308399
    82   1      28.849956672411139      20.399999999999999     0.72124891681028303
    83   1      30.292454506031696      22.439999999999998      2.1637467504308399
    84   1      31.734952339652253      20.399999999999999     0.72124891681028303
    85   1       33.17745017327281      22.439999999999998      2.1637467504308403
    86   1      34.619948006893367      20.399999999999999     0.72124891681028314
    87   1      36.062445840513924      22.439999999999998      2.1637467504308403
    88   1      37.504943674134481      20.399999999999999     0.72124891681028325
    89   1      5.7699913344822251                   24.48     0.72124891681028225
    90   1      7.2124891681027821                   26.52      2.1637467504308394
    91   1      8.6549870017233399                   24.48     0.72124891681028236
    92   1      10.097484835343897                   26.52      2.1637467504308394
    93   1      11.539982668964454                   24.48     0.72124891681028236
    94   1      12.982480502585011                   26.52      2.1637467504308399
    95   1      14.424978336205568                   24.48     0.72124891681028247
    96   1      15.867476169826125                   26.52      2.1637467504308399
    97   1      17.309974003446683                   24.48     0.72124891681028258
    98   1       18.75247183706724                   26.52      2.1637467504308399
    99   1      20.194969670687797                   24.48     0.72124891681028269
   100   1      21.637467504308354                   26.52      2.1637467504308399
   101   1      23.079965337928911                   24.48      0.7212489168102828
   102   1      24.522463171549468                   26.52      2.1637467504308399
   103   1      25.964961005170025                   24.48     0.72124891681028291
   104   1      27.407458838790582                   26.52      2.1637467504308399
   105   1      28.849956672411139                   24.48     0.72124891681028303
   106   1      30.292454506031696                   26.52      2.1637467504308399
   107   1      31.734952339652253                   24.48     0.72124891681028303
   108   1       33.17745017327281                   26.52      2.1637467504308403
   109   1      34.619948006893367                   24.48     0.72124891681028314
   110   1      8.6549870017233399      28.560000000000002     0.72124891681028236
   111   1      10.097484835343897      30.600000000000001      2.1637467504308394
   112   1      11.539982668964454      28.560000000000002     0.72124891681028236
   113   1      12.982480502585011      30.600000000000001      2.1637467504308399
   114   1      14.424978336205568      28.560000000000002     0.72124891681028247
   115   1      15.867476169826125      30.600000000000001      2.1637467504308399
   116   1      17.309974003446683      28.560000000000002     0.72124891681028258
   117   1       18.75247183706724      30.600000000000001      2.1637467504308399
   118   1      20.194969670687797      28.560000000000002     0.72124891681028269
   119   1      21.637467504308354      30.600000000000001      2.1637467504308399
   120   1      23.079965337928911      28.560000000000002      0.7212489168102828
   121   1      24.522463171549468      30.600000000000001      2.1637467504308399
   122   1      25.964961005170025      28.560000000000002     0.72124891681028291
   123   1      27.407458838790582      30.600000000000001      2.1637467504308399
   124   1      28.849956672411139      28.560000000000002     0.72124891681028303
   125   1      30.292454506031696      30.600000000000001      2.1637467504308399
   126   1      31.734952339652253      28.560000000000002     0.72124891681028303
   127   1      11.539982668964454      32.640000000000001     0.72124891681028236
   128   1      12.982480502585011                   34.68      2.1637467504308399
   129   1      14.424978336205568      32.640000000000001     0.72124891681028247
   130   1      15.867476169826125                   34.68      2.1637467504308399
   131   1      17.309974003446683      32.640000000000001     0.72124891681028258
   132   1       18.75247183706724                   34.68      2.1637467504308399
   133   1      20.194969670687797      32.640000000000001     0.72124891681028269
   134   1      21.637467504308354                   34.68      2.1637467504308399
   135   1      23.079965337928911      32.640000000000001      0.7212489168102828
   136   1      24.522463171549468                   34.68      2.1637467504308399
   137   1      25.964961005170025      32.640000000000001     0.72124891681028291
   138   1      27.407458838790582                   34.68      2.1637467504308399
   139   1      28.849956672411139      32.640000000000001     0.72124891681028303
   140   1      12.982480502585011      6.1199999999999992      5.0487424176719538
   141   1      15.867476169826125      6.1199999999999992      5.0487424176719538
   142   1       18.75247183706724      6.1199999999999992      5.0487424176719546
   143   1      21.637467504308354      6.1199999999999992      5.0487424176719546
   144   1      24.522463171549468      6.1199999999999992      5.0487424176719546
   145   1      27.407458838790582      6.1199999999999992      5.0487424176719546
   146   1      10.097484835343897      10.199999999999998      5.0487424176719538
   147   1      11.539982668964454      8.1599999999999984      3.6062445840513968
   148   1      12.982480502585011      10.199999999999998      5.0487424176719538
   149   1      14.424978336205568      8.1599999999999984      3.6062445840513968
   150   1      15.867476169826125      10.199999999999998      5.0487424176719538
   151   1      17.309974003446683      8.1599999999999984      3.6062445840513968
   152   1       18.75247183706724      10.199999999999998      5.0487424176719546
   153   1      20.194969670687797      8.1599999999999984      3.6062445840513968
   154   1      21.637467504308354      10.199999999999998      5.0487424176719546
   155   1      23.079965337928911      8.1599999999999984      3.6062445840513973
   156   1      24.522463171549468      10.199999999999998      5.0487424176719546
   157   1      25.964961005170025      8.1599999999999984      3.6062445840513973
   158   1      27.407458838790582      10.199999999999998      5.0487424176719546
   159   1      28.849956672411139      8.1599999999999984      3.6062445840513973
   160   1      30.292454506031696      10.199999999999998      5.0487424176719546
   161   1      7.2124891681027821      14.279999999999999      5.0487424176719538
   162   1      8.6549870017233399      12.239999999999998      3.6062445840513968
   163   1      10.097484835343897      14.279999999999999      5.0487424176719538
   164   1      11.539982668964454      12.239999999999998      3.6062445840513968
   165   1      12.982480502585011      14.279999999999999      5.0487424176719538
   166   1      14.424978336205568      12.239999999999998      3.6062445840513968
   167   1      15.867476169826125      14.279999999999999      5.0487424176719538
   168   1      17.309974003446683      12.239999999999998      3.6062445840513968
   169   1       18.75247183706724      14.279999999999999      5.0487424176719546
   170   1      20.194969670687797      12.239999999999998      3.6062445840513968
   171   1      21.637467504308354      14.279999999999999      5.0487424176719546
   172   1      23.079965337928911      12.239999999999998      3.6062445840513973
   173   1      24.522463171549468      14.279999999999999      5.0487424176719546
   174   1      25.964961005170025      12.239999999999998      3.6062445840513973
   175   1      27.407458838790582      14.279999999999999      5.0487424176719546
   176   1      28.849956672411139      12.239999999999998      3.6062445840513973
   177   1      30.292454506031696      14.279999999999999      5.0487424176719546
   178   1      31.734952339652253      12.239999999999998      3.6062445840513973
   179   1       33.17745017327281      14.279999999999999      5.0487424176719546
   180   1      4.3274935008616682      18.359999999999999      5.0487424176719538
   181   1      5.7699913344822251                   16.32      3.6062445840513964
   182   1      7.2124891681027821      18.359999999999999      5.0487424176719538
   183   1      8.6549870017233399                   16.32      3.6062445840513968
   184   1      10.097484835343897      18.359999999999999      5.0487424176719538
   185   1      11.539982668964454                   16.32      3.6062445840513968
   186   1      12.982480502585011      18.359999999999999      5.0487424176719538
   187   1      14.424978336205568                   16.32      3.6062445840513968
   188   1      15.867476169826125      18.359999999999999      5.0487424176719538
   189   1      17.309974003446683                   16.32      3.6062445840513968
   190   1       18.75247183706724      18.359999999999999      5.0487424176719546
   191   1      20.194969670687797                   16.32      3.6062445840513968
   192   1      21.637467504308354      18.359999999999999      5.0487424176719546
   193   1      23.079965337928911                   16.32      3.6062445840513973
   194   1      24.522463171549468      18.359999999999999      5.0487424176719546
   195   1      25.964961005170025                   16.32      3.6062445840513973
   196   1      27.407458838790582      18.359999999999999      5.0487424176719546
   197   1      28.849956672411139                   16.32      3.6062445840513973
   198   1      30.292454506031696      18.359999999999999      5.0487424176719546
   199   1      31.734952339652253                   16.32      3.6062445840513973
   200   1       33.17745017327281      18.359999999999999      5.0487424176719546
   201   1      34.619948006893367                   16.32      3.6062445840513977
   202   1      36.062445840513924      18.359999999999999      5.0487424176719546
   203   1      2.8849956672411103      20.399999999999999      3.6062445840513964
   204   1      4.3274935008616682      22.439999999999998      5.0487424176719538
   205   1      5.7699913344822251      20.399999999999999      3.6062445840513964
   206   1      7.2124891681027821      22.439999999999998      5.0487424176719538
   207   1      8.6549870017233399      20.399999999999999      3.6062445840513968
   208   1      10.097484835343897      22.439999999999998      5.0487424176719538
   209   1      11.539982668964454      20.399999999999999      3.6062445840513968
   210   1      12.982480502585011      22.439999999999998      5.0487424176719538
   211   1      14.424978336205568      20.399999999999999      3.6062445840513968
   212   1      15.867476169826125      22.439999999999998      5.0487424176719538
   213   1      17.309974003446683      20.399999999999999      3.6062445840513968
   214   1       18.75247183706724      22.439999999999998      5.0487424176719546
   215   1      20.194969670687797      20.399999999999999      3.6062445840513968
   216   1      21.637467504308354      22.439999999999998      5.0487424176719546
   217   1      23.079965337928911      20.399999999999999      3.6062445840513973
   218   1      24.522463171549468      22.439999999999998      5.0487424176719546
   219   1      25.964961005170025      20.399999999999999      3.6062445840513973
   220   1      27.407458838790582      22.439999999999998      5.0487424176719546
   221   1      28.849956672411139      20.399999999999999      3.6062445840513973
   222   1      30.292454506031696      22.439999999999998      5.0487424176719546
   223   1      31.734952339652253      20.399999999999999      3.6062445840513973
   224   1       33.17745017327281      22.439999999999998      5.0487424176719546
   225   1      34.619948006893367      20.399999999999999      3.6062445840513977
   226   1      36.062445840513924      22.439999999999998      5.0487424176719546
   227   1      37.504943674134481      20.399999999999999      3.6062445840513977
   228   1      5.7699913344822251                   24.48      3.6062445840513964
   229   1      7.2124891681027821                   26.52      5.0487424176719538
   230   1      8.6549870017233399                   24.48      3.6062445840513968
   231   1      10.097484835343897                   26.52      5.0487424176719538
   232   1      11.539982668964454                   24.48      3.6062445840513968
   233   1      12.982480502585011                   26.52      5.0487424176719538
   234   1      14.424978336205568                   24.48      3.6062445840513968
   235   1      15.867476169826125                   26.52      5.0487424176719538
   236   1      17.309974003446683                   24.48      3.6062445840513968
   237   1       18.75247183706724                   26.52      5.0487424176719546
   238   1      20.194969670687797                   24.48      3.6062445840513968
   239   1      21.637467504308354                   26.52      5.0487424176719546
   240   1      23.079965337928911                   24.48      3.6062445840513973
   241   1      24.522463171549468                   26.52      5.0487424176719546
   242   1      25.964961005170025                   24.48      3.6062445840513973
   243   1      27.407458838790582                   26.52      5.0487424176719546
   244   1      28.849956672411139                   24.48      3.6062445840513973
   245   1      30.292454506031696                   26.52      5.0487424176719546
   246   1      31.734952339652253                   24.48      3.6062445840513973
   247   1       33.17745017327281                   26.52      5.0487424176719546
   248   1      34.619948006893367                   24.48      3.6062445840513977
   249   1      8.6549870017233399      28.560000000000002      3.6062445840513968
   250   1      10.097484835343897      30.600000000000001      5.0487424176719538
   251   1      11.539982668964454      28.560000000000002      3.6062445840513968
   252   1      12.982480502585011      30.600000000000001      5.0487424176719538
   253   1      14.424978336205568      28.560000000000002      3.6062445840513968
   254   1      15.867476169826125      30.600000000000001      5.0487424176719538
   255   1      17.309974003446683      28.560000000000002      3.6062445840513968
   256   1       18.75247183706724      30.600000000000001      5.0487424176719546
   257   1      20.194969670687797      28.560000000000002      3.6062445840513968
   258   1      21.637467504308354      30.600000000000001      5.0487424176719546
   259   1      23.079965337928911      28.560000000000002      3.6062445840513973
   260   1      24.522463171549468      30.600000000000001      5.0487424176719546
   261   1      25.964961005170025      28.560000000000002      3.6062445840513973
   262   1      27.407458838790582      30.600000000000001      5.0487424176719546
   263   1      28.849956672411139      28.560000000000002      3.6062445840513973
   264   1      30.292454506031696      30.600000000000001      5.0487424176719546
   265   1      31.734952339652253      28.560000000000002      3.6062445840513973
   266   1      11.539982668964454      32.640000000000001      3.6062445840513968
   267   1      12.982480502585011                   34.68      5.0487424176719538
   268   1      14.424978336205568      32.640000000000001      3.6062445840513968
   269   1      15.867476169826125                   34.68      5.0487424176719538
   270   1      17.309974003446683      32.640000000000001      3.6062445840513968
   271   1       18.75247183706724                   34.68      5.0487424176719546
   272   1      20.194969670687797      32.640000000000001      3.6062445840513968
   273   1      21.637467504308354                   34.68      5.0487424176719546
   274   1      23.079965337928911      32.640000000000001      3.6062445840513973
   275   1      24.522463171549468                   34.68      5.0487424176719546
   276   1      25.964961005170025      32.640000000000001      3.6062445840513973
   277   1      27.407458838790582                   34.68      5.0487424176719546
   278   1      28.849956672411139      32.640000000000001      3.6062445840513973
   279   1      12.982480502585011      6.1199999999999992      7.9337380849130685
   280   1      15.867476169826125      6.1199999999999992      7.9337380849130685
   281   1       18.75247183706724      6.1199999999999992      7.9337380849130685
   282   1      21.637467504308354      6.1199999999999992      7.9337380849130685
   283   1      24.522463171549468      6.1199999999999992      7.9337380849130685
   284   1      27.407458838790582      6.1199999999999992      7.9337380849130685
   285   1      10.097484835343897      10.199999999999998      7.9337380849130685
   286   1      11.539982668964454      8.1599999999999984      6.4912402512925107
   287   1      12.982480502585011      10.199999999999998      7.9337380849130685
   288   1      14.424978336205568      8.1599999999999984      6.4912402512925116
   289   1      15.867476169826125      10.199999999999998      7.9337380849130685
   290   1      17.309974003446683      8.1599999999999984      6.4912402512925116
   291   1       18.75247183706724      10.199999999999998      7.9337380849130685
   292   1      20.194969670687797      8.1599999999999984      6.4912402512925116
   293   1      21.637467504308354      10.199999999999998      7.9337380849130685
   294   1      23.079965337928911      8.1599999999999984      6.4912402512925116
   295   1      24.522463171549468      10.199999999999998      7.9337380849130685
   296   1      25.964961005170025      8.1599999999999984      6.4912402512925116
   297   1      27.407458838790582      10.199999999999998      7.9337380849130685
   298   1      28.849956672411139      8.1599999999999984      6.4912402512925116
   299   1      30.292454506031696      10.199999999999998      7.9337380849130685
   300   1      7.2124891681027821      14.279999999999999      7.9337380849130685
   301   1      8.6549870017233399      12.239999999999998      6.4912402512925107
   302   1      10.097484835343897      14.279999999999999      7.9337380849130685
   303   1      11.539982668964454      12.239999999999998      6.4912402512925107
   304   1      12.982480502585011      14.279999999999999      7.9337380849130685
   305   1      14.424978336205568      12.239999999999998      6.4912402512925116
   306   1      15.867476169826125      14.279999999999999      7.9337380849130685
   307   1      17.309974003446683      12.239999999999998      6.4912402512925116
   308   1       18.75247183706724      14.279999999999999      7.9337380849130685
   309   1      20.194969670687797      12.239999999999998      6.4912402512925116
   310   1      21.637467504308354      14.279999999999999      7.9337380849130685
   311   1      23.079965337928911      12.239999999999998      6.4912402512925116
   312   1      24.522463171549468      14.279999999999999      7.9337380849130685
   313   1      25.964961005170025      12.239999999999998      6.4912402512925116
   314   1      27.407458838790582      14.279999999999999      7.9337380849130685
   315   1      28.849956672411139      12.239999999999998      6.4912402512925116
   316   1      30.292454506031696      14.279999999999999      7.9337380849130685
   317   1      31.734952339652253      12.239999999999998      6.4912402512925116
   318   1       33.17745017327281      14.279999999999999      7.9337380849130685
   319   1      4.3274935008616682      18.359999999999999      7.9337380849130676
   320   1      5.7699913344822251                   16.32      6.4912402512925107
   321   1      7.2124891681027821      18.359999999999999      7.9337380849130685
   322   1      8.6549870017233399                   16.32      6.4912402512925107
   323   1      10.097484835343897      18.359999999999999      7.9337380849130685
   324   1      11.539982668964454                   16.32      6.4912402512925107
   325   1      12.982480502585011      18.359999999999999      7.9337380849130685
   326   1      14.424978336205568                   16.32      6.4912402512925116
   327   1      15.867476169826125      18.359999999999999      7.9337380849130685
   328   1      17.309974003446683                   16.32      6.4912402512925116
   329   1       18.75247183706724      18.359999999999999      7.9337380849130685
   330   1      20.194969670687797                   16.32      6.4912402512925116
   331   1      21.637467504308354      18.359999999999999      7.9337380849130685
   332   1      23.079965337928911                   16.32      6.4912402512925116
   333   1      24.522463171549468      18.359999999999999      7.9337380849130685
   334   1      25.964961005170025                   16.32      6.4912402512925116
   335   1      27.407458838790582      18.359999999999999      7.9337380849130685
   336   1      28.849956672411139                   16.32      6.4912402512925116
   337   1      30.292454506031696      18.359999999999999      7.9337380849130685
   338   1      31.734952339652253                   16.32      6.4912402512925116
   339   1       33.17745017327281      18.359999999999999      7.9337380849130685
   340   1      34.619948006893367                   16.32      6.4912402512925116
   341   1      36.062445840513924      18.359999999999999      7.9337380849130685
   342   1      2.8849956672411103      20.399999999999999      6.4912402512925107
   343   1      4.3274935008616682      22.439999999999998      7.9337380849130676
   344   1      5.7699913344822251      20.399999999999999      6.4912402512925107
   345   1      7.2124891681027821      22.439999999999998      7.9337380849130685
   346   1      8.6549870017233399      20.399999999999999      6.4912402512925107
   347   1      10.097484835343897      22.439999999999998      7.9337380849130685
   348   1      11.539982668964454      20.399999999999999      6.4912402512925107
   349   1      12.982480502585011      22.439999999999998      7.9337380849130685
   350   1      14.424978336205568      20.399999999999999      6.4912402512925116
   351   1      15.867476169826125      22.439999999999998      7.9337380849130685
   352   1      17.309974003446683      20.399999999999999      6.4912402512925116
   353   1       18.75247183706724      22.439999999999998      7.9337380849130685
   354   1      20.194969670687797      20.399999999999999      6.4912402512925116
   355   1      21.637467504308354      22.439999999999998      7.9337380849130685
   356   1      23.079965337928911      20.399999999999999      6.4912402512925116
   357   1      24.522463171549468      22.439999999999998      7.9337380849130685
   358   1      25.964961005170025      20.399999999999999      6.4912402512925116
   359   1      27.407458838790582      22.439999999999998      7.9337380849130685