(written by ASE)

3120 atoms
1 atom types

0.0      31.734952339652256  xlo xhi
0.0      48.960000000000001  ylo yhi
0.0      173.09974003446686  zlo zhi

Atoms # atomic

     1   1      10.097484835343897      18.359999999999999      2.1637467504308394
     2   1      11.539982668964454                   16.32     0.72124891681028225
     3   1      12.982480502585011      18.359999999999999      2.1637467504308394
     4   1      14.424978336205568                   16.32     0.72124891681028236
     5   1      15.867476169826125      18.359999999999999      2.1637467504308394
     6   1      17.309974003446683                   16.32     0.72124891681028247
     7   1       18.75247183706724      18.359999999999999      2.1637467504308399
     8   1      20.194969670687797                   16.32     0.72124891681028258
     9   1      21.637467504308354      18.359999999999999      2.1637467504308399
    10   1      7.2124891681027812      22.439999999999998      2.1637467504308394
    11   1      8.6549870017233399      20.399999999999999     0.72124891681028225
    12   1      10.097484835343897      22.439999999999998      2.1637467504308394
    13   1      11.539982668964454      20.399999999999999     0.72124891681028225
    14   1      12.982480502585011      22.439999999999998      2.1637467504308394
    15   1      14.424978336205568      20.399999999999999     0.72124891681028236
    16   1      15.867476169826125      22.439999999999998      2.1637467504308394
    17   1      17.309974003446683      20.399999999999999     0.72124891681028247
    18   1       18.75247183706724      22.439999999999998      2.1637467504308399
    19   1      20.194969670687797      20.399999999999999     0.72124891681028258
    20   1      21.637467504308354      22.439999999999998      2.1637467504308399
    21   1      23.079965337928911      20.399999999999999     0.72124891681028269
    22   1      24.522463171549468      22.439999999999998      2.1637467504308399
    23   1      5.7699913344822242                   24.48     0.72124891681028214
    24   1      7.2124891681027812                   26.52      2.1637467504308394
    25   1      8.6549870017233399                   24.48     0.72124891681028225
    26   1      10.097484835343897                   26.52      2.1637467504308394
    27   1      11.539982668964454                   24.48     0.72124891681028225
    28   1      12.982480502585011                   26.52      2.1637467504308394
    29   1      14.424978336205568                   24.48     0.72124891681028236
    30   1      15.867476169826125                   26.52      2.1637467504308394
    31   1      17.309974003446683                   24.48     0.72124891681028247
    32   1       18.75247183706724                   26.52      2.1637467504308399
    33   1      20.194969670687797                   24.48     0.72124891681028258
    34   1      21.637467504308354                   26.52      2.1637467504308399
    35   1      23.079965337928911                   24.48     0.72124891681028269
    36   1      24.522463171549468                   26.52      2.1637467504308399
    37   1      25.964961005170025                   24.48      0.7212489168102828
    38   1      8.6549870017233399      28.560000000000002     0.72124891681028225
    39   1      10.097484835343897      30.600000000000001      2.1637467504308394
    40   1      11.539982668964454      28.560000000000002     0.72124891681028225
    41   1      12.982480502585011      30.600000000000001      2.1637467504308394
    42   1      14.424978336205568      28.560000000000002     0.72124891681028236
    43   1      15.867476169826125      30.600000000000001      2.1637467504308394
    44   1      17.309974003446683      28.560000000000002     0.72124891681028247
    45   1       18.75247183706724      30.600000000000001      2.1637467504308399
    46   1      20.194969670687797      28.560000000000002     0.72124891681028258
    47   1      21.637467504308354      30.600000000000001      2.1637467504308399
    48   1      23.079965337928911      28.560000000000002     0.72124891681028269
    49   1      11.539982668964454      32.640000000000001     0.72124891681028225
    50   1      14.424978336205568      32.640000000000001     0.72124891681028236
    51   1      17.309974003446683      32.640000000000001     0.72124891681028247
    52   1      20.194969670687797      32.640000000000001     0.72124891681028258
    53   1      10.097484835343897      18.359999999999999      5.0487424176719538
    54   1      11.539982668964454                   16.32      3.6062445840513968
    55   1      12.982480502585011      18.359999999999999      5.0487424176719538
    56   1      14.424978336205568                   16.32      3.6062445840513968
    57   1      15.867476169826125      18.359999999999999      5.0487424176719538
    58   1      17.309974003446683                   16.32      3.6062445840513968
    59   1       18.75247183706724      18.359999999999999      5.0487424176719546
    60   1      20.194969670687797                   16.32      3.6062445840513968
    61   1      21.637467504308354      18.359999999999999      5.0487424176719546
    62   1      7.2124891681027812      22.439999999999998      5.0487424176719538
    63   1      8.6549870017233399      20.399999999999999      3.6062445840513968
    64   1      10.097484835343897      22.439999999999998      5.0487424176719538
    65   1      11.539982668964454      20.399999999999999      3.6062445840513968
    66   1      12.982480502585011      22.439999999999998      5.0487424176719538
    67   1      14.424978336205568      20.399999999999999      3.6062445840513968
    68   1      15.867476169826125      22.439999999999998      5.0487424176719538
    69   1      17.309974003446683      20.399999999999999      3.6062445840513968
    70   1       18.75247183706724      22.439999999999998      5.0487424176719546
    71   1      20.194969670687797      20.399999999999999      3.6062445840513968
    72   1      21.637467504308354      22.439999999999998      5.0487424176719546
    73   1      23.079965337928911      20.399999999999999      3.6062445840513973
    74   1      24.522463171549468      22.439999999999998      5.0487424176719546
    75   1      5.7699913344822242                   24.48      3.6062445840513964
    76   1      7.2124891681027812                   26.52      5.0487424176719538
    77   1      8.6549870017233399                   24.48      3.6062445840513968
    78   1      10.097484835343897                   26.52      5.0487424176719538
    79   1      11.539982668964454                   24.48      3.6062445840513968
    80   1      12.982480502585011                   26.52      5.0487424176719538
    81   1      14.424978336205568                   24.48      3.6062445840513968
    82   1      15.867476169826125                   26.52      5.0487424176719538
    83   1      17.309974003446683                   24.48      3.6062445840513968
    84   1       18.75247183706724                   26.52      5.0487424176719546
    85   1      20.194969670687797                   24.48      3.6062445840513968
    86   1      21.637467504308354                   26.52      5.0487424176719546
    87   1      23.079965337928911                   24.48      3.6062445840513973
    88   1      24.522463171549468                   26.52      5.0487424176719546
    89   1      25.964961005170025                   24.48      3.6062445840513973
    90   1      8.6549870017233399      28.560000000000002      3.6062445840513968
    91   1      10.097484835343897      30.600000000000001      5.0487424176719538
    92   1      11.539982668964454      28.560000000000002      3.6062445840513968
    93   1      12.982480502585011      30.600000000000001      5.0487424176719538
    94   1      14.424978336205568      28.560000000000002      3.6062445840513968
    95   1      15.867476169826125      30.600000000000001      5.0487424176719538
    96   1      17.309974003446683      28.560000000000002      3.6062445840513968
    97   1       18.75247183706724      30.600000000000001      5.0487424176719546
    98   1      20.194969670687797      28.560000000000002      3.6062445840513968
    99   1      21.637467504308354      30.600000000000001      5.0487424176719546
   100   1      23.079965337928911      28.560000000000002      3.6062445840513973
   101   1      11.539982668964454      32.640000000000001      3.6062445840513968
   102   1      14.424978336205568      32.640000000000001      3.6062445840513968
   103   1      17.309974003446683      32.640000000000001      3.6062445840513968
   104   1      20.194969670687797      32.640000000000001      3.6062445840513968
   105   1      10.097484835343897      18.359999999999999      7.9337380849130685
   106   1      11.539982668964454                   16.32      6.4912402512925107
   107   1      12.982480502585011      18.359999999999999      7.9337380849130685
   108   1      14.424978336205568                   16.32      6.4912402512925116
   109   1      15.867476169826125      18.359999999999999      7.9337380849130685
   110   1      17.309974003446683                   16.32      6.4912402512925116
   111   1       18.75247183706724      18.359999999999999      7.9337380849130685
   112   1      20.194969670687797                   16.32      6.4912402512925116
   113   1      21.637467504308354      18.359999999999999      7.9337380849130685
   114   1      7.2124891681027812      22.439999999999998      7.9337380849130685
   115   1      8.6549870017233399      20.399999999999999      6.4912402512925107
   116   1      10.097484835343897      22.439999999999998      7.9337380849130685
   117   1      11.539982668964454      20.399999999999999      6.4912402512925107
   118   1      12.982480502585011      22.439999999999998      7.9337380849130685
   119   1      14.424978336205568      20.399999999999999      6.4912402512925116
   120   1      15.867476169826125      22.439999999999998      7.9337380849130685
   121   1      17.309974003446683      20.399999999999999      6.4912402512925116
   122   1       18.75247183706724      22.439999999999998      7.9337380849130685
   123   1      20.194969670687797      20.399999999999999      6.4912402512925116
   124   1      21.637467504308354      22.439999999999998      7.9337380849130685
   125   1      23.079965337928911      20.399999999999999      6.4912402512925116
   126   1      24.522463171549468      22.439999999999998      7.9337380849130685
   127   1      5.7699913344822242                   24.48      6.4912402512925107
   128   1      7.2124891681027812                   26.52      7.9337380849130685
   129   1      8.6549870017233399                   24.48      6.4912402512925107
   130   1      10.097484835343897                   26.52      7.9337380849130685
   131   1      11.539982668964454                   24.48      6.4912402512925107
   132   1      12.982480502585011                   26.52      7.9337380849130685
   133   1      14.424978336205568                   24.48      6.4912402512925116
   134   1      15.867476169826125                   26.52      7.9337380849130685
   135   1      17.309974003446683                   24.48      6.4912402512925116
   136   1       18.75247183706724                   26.52      7.9337380849130685
   137   1      20.194969670687797                   24.48      6.4912402512925116
   138   1      21.637467504308354                   26.52      7.9337380849130685
   139   1      23.079965337928911                   24.48      6.4912402512925116
   140   1      24.522463171549468                   26.52      7.9337380849130685
   141   1      25.964961005170025                   24.48      6.4912402512925116
   142   1      8.6549870017233399      28.560000000000002      6.4912402512925107
   143   1      10.097484835343897      30.600000000000001      7.9337380849130685
   144   1      11.539982668964454      28.560000000000002      6.4912402512925107
   145   1      12.982480502585011      30.600000000000001      7.9337380849130685
   146   1      14.424978336205568      28.560000000000002      6.4912402512925116
   147   1      15.867476169826125      30.600000000000001      7.9337380849130685
   148   1      17.309974003446683      28.560000000000002      6.4912402512925116
   149   1       18.75247183706724      30.600000000000001      7.9337380849130685
   150   1      20.194969670687797      28.560000000000002      6.4912402512925116
   151   1      21.637467504308354      30.600000000000001      7.9337380849130685
   152   1      23.079965337928911      28.560000000000002      6.4912402512925116
   153   1      11.539982668964454      32.640000000000001      6.4912402512925107
   154   1      14.424978336205568      32.640000000000001      6.4912402512925116
   155   1      17.309974003446683      32.640000000000001      6.4912402512925116
   156   1      20.194969670687797      32.640000000000001      6.4912402512925116
   157   1      10.097484835343897      18.359999999999999      10.818733752154182
   158   1      11.539982668964454                   16.32      9.3762359185336255
   159   1      12.982480502585011      18.359999999999999      10.818733752154182
   160   1      14.424978336205568                   16.32      9.3762359185336255
   161   1      15.867476169826125      18.359999999999999      10.818733752154182
   162   1      17.309974003446683                   16.32      9.3762359185336255
   163   1       18.75247183706724      18.359999999999999      10.818733752154184
   164   1      20.194969670687797                   16.32      9.3762359185336255
   165   1      21.637467504308354      18.359999999999999      10.818733752154184
   166   1      7.2124891681027812      22.439999999999998      10.818733752154182
   167   1      8.6549870017233399      20.399999999999999      9.3762359185336255
   168   1      10.097484835343897      22.439999999999998      10.818733752154182
   169   1      11.539982668964454      20.399999999999999      9.3762359185336255
   170   1      12.982480502585011      22.439999999999998      10.818733752154182
   171   1      14.424978336205568      20.399999999999999      9.3762359185336255
   172   1      15.867476169826125      22.439999999999998      10.818733752154182
   173   1      17.309974003446683      20.399999999999999      9.3762359185336255
   174   1       18.75247183706724      22.439999999999998      10.818733752154184
   175   1      20.194969670687797      20.399999999999999      9.3762359185336255
   176   1      21.637467504308354      22.439999999999998      10.818733752154184
   177   1      23.079965337928911      20.399999999999999      9.3762359185336255
   178   1      24.522463171549468      22.439999999999998      10.818733752154184
   179   1      5.7699913344822242                   24.48      9.3762359185336255
   180   1      7.2124891681027812                   26.52      10.818733752154182
   181   1      8.6549870017233399                   24.48      9.3762359185336255
   182   1      10.097484835343897                   26.52      10.818733752154182
   183   1      11.539982668964454                   24.48      9.3762359185336255
   184   1      12.982480502585011                   26.52      10.818733752154182
   185   1      14.424978336205568                   24.48      9.3762359185336255
   186   1      15.867476169826125                   26.52      10.818733752154182
   187   1      17.309974003446683                   24.48      9.3762359185336255
   188   1       18.75247183706724                   26.52      10.818733752154184
   189   1      20.194969670687797                   24.48      9.3762359185336255
   190   1      21.637467504308354                   26.52      10.818733752154184
   191   1      23.079965337928911                   24.48      9.3762359185336255
   192   1      24.522463171549468                   26.52      10.818733752154184
   193   1      25.964961005170025                   24.48      9.3762359185336255
   194   1      8.6549870017233399      28.560000000000002      9.3762359185336255
   195   1      10.097484835343897      30.600000000000001      10.818733752154182
   196   1      11.539982668964454      28.560000000000002      9.3762359185336255
   197   1      12.982480502585011      30.600000000000001      10.818733752154182
   198   1      14.424978336205568      28.560000000000002      9.3762359185336255
   199   1      15.867476169826125      30.600000000000001      10.818733752154182
   200   1      17.309974003446683      28.560000000000002      9.3762359185336255
   201   1       18.75247183706724      30.600000000000001      10.818733752154184
   202   1      20.194969670687797      28.560000000000002      9.3762359185336255
   203   1      21.637467504308354      30.600000000000001      10.818733752154184
   204   1      23.079965337928911      28.560000000000002      9.3762359185336255
   205   1      11.539982668964454      32.640000000000001      9.3762359185336255
   206   1      14.424978336205568      32.640000000000001      9.3762359185336255
   207   1      17.309974003446683      32.640000000000001      9.3762359185336255
   208   1      20.194969670687797      32.640000000000001      9.3762359185336255
   209   1      10.097484835343897      18.359999999999999      13.703729419395296
   210   1      11.539982668964454                   16.32      12.261231585774739
   211   1      12.982480502585011      18.359999999999999      13.703729419395296
   212   1      14.424978336205568                   16.32      12.261231585774739
   213   1      15.867476169826125      18.359999999999999      13.703729419395296
   214   1      17.309974003446683                   16.32      12.261231585774739
   215   1       18.75247183706724      18.359999999999999      13.703729419395298
   216   1      20.194969670687797                   16.32      12.261231585774739
   217   1      21.637467504308354      18.359999999999999      13.703729419395298
   218   1      7.2124891681027812      22.439999999999998      13.703729419395296
   219   1      8.6549870017233399      20.399999999999999      12.261231585774739
   220   1      10.097484835343897      22.439999999999998      13.703729419395296
   221   1      11.539982668964454      20.399999999999999      12.261231585774739
   222   1      12.982480502585011      22.439999999999998      13.703729419395296
   223   1      14.424978336205568      20.399999999999999      12.261231585774739
   224   1      15.867476169826125      22.439999999999998      13.703729419395296
   225   1      17.309974003446683      20.399999999999999      12.261231585774739
   226   1       18.75247183706724      22.439999999999998      13.703729419395298
   227   1      20.194969670687797      20.399999999999999      12.261231585774739
   228   1      21.637467504308354      22.439999999999998      13.703729419395298
   229   1      23.079965337928911      20.399999999999999      12.261231585774739
   230   1      24.522463171549468      22.439999999999998      13.703729419395298
   231   1      5.7699913344822242                   24.48      12.261231585774739
   232   1      7.2124891681027812                   26.52      13.703729419395296
   233   1      8.6549870017233399                   24.48      12.261231585774739
   234   1      10.097484835343897                   26.52      13.703729419395296
   235   1      11.539982668964454                   24.48      12.261231585774739
   236   1      12.982480502585011                   26.52      13.703729419395296
   237   1      14.424978336205568                   24.48      12.261231585774739
   238   1      15.867476169826125                   26.52      13.703729419395296
   239   1      17.309974003446683                   24.48      12.261231585774739
   240   1       18.75247183706724                   26.52      13.703729419395298
   241   1      20.194969670687797                   24.48      12.261231585774739
   242   1      21.637467504308354                   26.52      13.703729419395298
   243   1      23.079965337928911                   24.48      12.261231585774739
   244   1      24.522463171549468                   26.52      13.703729419395298
   245   1      25.964961005170025                   24.48      12.261231585774739
   246   1      8.6549870017233399      28.560000000000002      12.261231585774739
   247   1      10.097484835343897      30.600000000000001      13.703729419395296
   248   1      11.539982668964454      28.560000000000002      12.261231585774739
   249   1      12.982480502585011      30.600000000000001      13.703729419395296
   250   1      14.424978336205568      28.560000000000002      12.261231585774739
   251   1      15.867476169826125      30.600000000000001      13.703729419395296
   252   1      17.309974003446683      28.560000000000002      12.261231585774739
   253   1       18.75247183706724      30.600000000000001      13.703729419395298
   254   1      20.194969670687797      28.560000000000002      12.261231585774739
   255   1      21.637467504308354      30.600000000000001      13.703729419395298
   256   1      23.079965337928911      28.560000000000002      12.261231585774739
   257   1      11.539982668964454      32.640000000000001      12.261231585774739
   258   1      14.424978336205568      32.640000000000001      12.261231585774739
   259   1      17.309974003446683      32.640000000000001      12.261231585774739
   260   1      20.194969670687797      32.640000000000001      12.261231585774739
   261   1      10.097484835343897      18.359999999999999      16.588725086636408
   262   1      11.539982668964454                   16.32      15.146227253015853
   263   1      12.982480502585011      18.359999999999999      16.588725086636408
   264   1      14.424978336205568                   16.32      15.146227253015853
   265   1      15.867476169826125      18.359999999999999      16.588725086636408
   266   1      17.309974003446683                   16.32      15.146227253015853
   267   1       18.75247183706724      18.359999999999999      16.588725086636412
   268   1      20.194969670687797                   16.32      15.146227253015853
   269   1      21.637467504308354      18.359999999999999      16.588725086636412
   270   1       7.212489168102783      22.439999999999998      16.588725086636408
   271   1      8.6549870017233399      20.399999999999999      15.146227253015853
   272   1      10.097484835343897      22.439999999999998      16.588725086636408
   273   1      11.539982668964454      20.399999999999999      15.146227253015853
   274   1      12.982480502585011      22.439999999999998      16.588725086636408
   275   1      14.424978336205568      20.399999999999999      15.146227253015853
   276   1      15.867476169826125      22.439999999999998      16.588725086636408
   277   1      17.309974003446683      20.399999999999999      15.146227253015853
   278   1       18.75247183706724      22.439999999999998      16.588725086636412
   279   1      20.194969670687797      20.399999999999999      15.146227253015853
   280   1      21.637467504308354      22.439999999999998      16.588725086636412
   281   1      23.079965337928911      20.399999999999999      15.146227253015853
   282   1      24.522463171549468      22.439999999999998      16.588725086636412
   283   1       5.769991334482226                   24.48      15.146227253015853
   284   1       7.212489168102783                   26.52      16.588725086636408
   285   1      8.6549870017233399                   24.48      15.146227253015853
   286   1      10.097484835343897                   26.52      16.588725086636408
   287   1      11.539982668964454                   24.48      15.146227253015853
   288   1      12.982480502585011                   26.52      16.588725086636408
   289   1      14.424978336205568                   24.48      15.146227253015853
   290   1      15.867476169826125                   26.52      16.588725086636408
   291   1      17.309974003446683                   24.48      15.146227253015853
   292   1       18.75247183706724                   26.52      16.588725086636412
   293   1      20.194969670687797                   24.48      15.146227253015853
   294   1      21.637467504308354                   26.52      16.588725086636412
   295   1      23.079965337928911                   24.48      15.146227253015853
   296   1      24.522463171549468                   26.52      16.588725086636412
   297   1      25.964961005170025                   24.48      15.146227253015853
   298   1      8.6549870017233399      28.560000000000002      15.146227253015853
   299   1      10.097484835343897      30.600000000000001      16.588725086636408
   300   1      11.539982668964454      28.560000000000002      15.146227253015853
   301   1      12.982480502585011      30.600000000000001      16.588725086636408
   302   1      14.424978336205568      28.560000000000002      15.146227253015853
   303   1      15.867476169826125      30.600000000000001      16.588725086636408
   304   1      17.309974003446683      28.560000000000002      15.146227253015853
   305   1       18.75247183706724      30.600000000000001      16.588725086636412
   306   1      20.194969670687797      28.560000000000002      15.146227253015853
   307   1      21.637467504308354      30.600000000000001      16.588725086636412
   308   1      23.079965337928911      28.560000000000002      15.146227253015853
   309   1      11.539982668964454      32.640000000000001      15.146227253015853
   310   1      14.424978336205568      32.640000000000001      15.146227253015853
   311   1      17.309974003446683      32.640000000000001      15.146227253015853
   312   1      20.194969670687797      32.640000000000001      15.146227253015853
   313   1      10.097484835343897      18.359999999999999      19.473720753877526
   314   1      11.539982668964454                   16.32      18.031222920256969
   315   1      12.982480502585011      18.359999999999999      19.473720753877526
   316   1      14.424978336205568                   16.32      18.031222920256969
   317   1      15.867476169826125      18.359999999999999      19.473720753877526
   318   1      17.309974003446683                   16.32      18.031222920256969
   319   1       18.75247183706724      18.359999999999999      19.473720753877526
   320   1      20.194969670687797                   16.32      18.031222920256969
   321   1      21.637467504308354      18.359999999999999      19.473720753877526
   322   1       7.212489168102783      22.439999999999998      19.473720753877526
   323   1      8.6549870017233399      20.399999999999999      18.031222920256969
   324   1      10.097484835343897      22.439999999999998      19.473720753877526
   325   1      11.539982668964454      20.399999999999999      18.031222920256969
   326   1      12.982480502585011      22.439999999999998      19.473720753877526
   327   1      14.424978336205568      20.399999999999999      18.031222920256969
   328   1      15.867476169826125      22.439999999999998      19.473720753877526
   329   1      17.309974003446683      20.399999999999999      18.031222920256969
   330   1       18.75247183706724      22.439999999999998      19.473720753877526
   331   1      20.194969670687797      20.399999999999999      18.031222920256969
   332   1      21.637467504308354      22.439999999999998      19.473720753877526
   333   1      23.079965337928911      20.399999999999999      18.031222920256969
   334   1      24.522463171549468      22.439999999999998      19.473720753877526
   335   1       5.769991334482226                   24.48      18.031222920256969
   336   1       7.212489168102783                   26.52      19.473720753877526
   337   1      8.6549870017233399                   24.48      18.031222920256969
   338   1      10.097484835343897                   26.52      19.473720753877526
   339   1      11.539982668964454                   24.48      18.031222920256969
   340   1      12.982480502585011                   26.52      19.473720753877526
   341   1      14.424978336205568                   24.48      18.031222920256969
   342   1      15.867476169826125                   26.52      19.473720753877526
   343   1      17.309974003446683                   24.48      18.031222920256969
   344   1       18.75247183706724                   26.52      19.473720753877526
   345   1      20.194969670687797                   24.48      18.031222920256969
   346   1      21.637467504308354                   26.52      19.473720753877526
   347   1      23.079965337928911                   24.48      18.031222920256969
   348   1      24.522463171549468                   26.52      19.473720753877526
   349   1      25.964961005170025                   24.48      18.031222920256969
   350   1      8.6549870017233399      28.560000000000002      18.031222920256969
   351   1      10.097484835343897      30.600000000000001      19.473720753877526
   352   1      11.539982668964454      28.560000000000002      18.031222920256969
   353   1      12.982480502585011      30.600000000000001      19.473720753877526
   354   1      14.424978336205568      28.560000000000002      18.031222920256969
   355   1      15.867476169826125      30.600000000000001      19.473720753877526
   356   1      17.309974003446683      28.560000000000002      18.031222920256969
   357   1       18.75247183706724      30.600000000000001      19.473720753877526
   358   1      20.194969670687797      28.560000000000002      18.031222920256969
   359   1      21.637467504308354      30.600000000000001      19.473720753877526